 DBCSR| CPU Multiplication driver                                           XSMM
 DBCSR| Multrec recursion limit                                              512
 DBCSR| Multiplication stack size                                           1000
 DBCSR| Maximum elements for images                                    UNLIMITED
 DBCSR| Multiplicative factor virtual images                                   1
 DBCSR| Use multiplication densification                                       T
 DBCSR| Multiplication size stacks                                             3
 DBCSR| Use memory pool for CPU allocation                                     F
 DBCSR| Number of 3D layers                                               SINGLE
 DBCSR| Use MPI memory allocation                                              F
 DBCSR| Use RMA algorithm                                                      F
 DBCSR| Use Communication thread                                               T
 DBCSR| Communication thread load                                             87
 DBCSR| MPI: My node id                                                        0
 DBCSR| MPI: Number of nodes                                                  80
 DBCSR| OMP: Current number of threads                                         1
 DBCSR| OMP: Max number of threads                                             1
 DBCSR| Split modifier for TAS multiplication algorithm                  1.0E+00


  **** **** ******  **  PROGRAM STARTED AT               2022-10-14 15:45:14.960
 ***** ** ***  *** **   PROGRAM STARTED ON                         node-c12g-003
 **    ****   ******    PROGRAM STARTED BY                               mmm0779
 ***** **    ** ** **   PROGRAM PROCESS ID                                 57257
  **** **  *******  **  PROGRAM STARTED IN /lustre/home/mmm0779/work/aiida/6d/bf
                                           /3aa9-6ac8-4d7b-a095-4d5ced88ed96

 CP2K| version string:                                          CP2K version 8.2
 CP2K| source code revision number:                                  git:310b7ab
 CP2K| cp2kflags: omp libint fftw3 libxc elpa parallel mpi3 scalapack cosma quip
 CP2K|             xsmm spglib libvori libbqb
 CP2K| is freely available from                            https://www.cp2k.org/
 CP2K| Program compiled at                          Mon 12 Jul 16:59:35 BST 2021
 CP2K| Program compiled on                                               login02
 CP2K| Program compiled for                                                local
 CP2K| Data directory path               /shared/ucl/apps/cp2k/8.2/cp2k-8.2/data
 CP2K| Input file name                                                 aiida.inp

 GLOBAL| Force Environment number                                              1
 GLOBAL| Basis set file name                                     SCAN_BASIS_SETS
 GLOBAL| Potential file name                                      POTENTIAL_SCAN
 GLOBAL| MM Potential file name                                     MM_POTENTIAL
 GLOBAL| Coordinate file name                                    ScanInitWfn.xyz
 GLOBAL| Method name                                                        CP2K
 GLOBAL| Project name                                                      aiida
 GLOBAL| Run type                                                   ENERGY_FORCE
 GLOBAL| FFT library                                                       FFTW3
 GLOBAL| Diagonalization library                                            ELPA
 GLOBAL| Minimum number of eigenvectors for ELPA usage                        16
 GLOBAL| Orthonormality check for eigenvectors                          DISABLED
 GLOBAL| Matrix multiplication library                                     COSMA
 GLOBAL| All-to-all communication in single precision                          F
 GLOBAL| FFTs using library dependent lengths                                  F
 GLOBAL| Grid backend                                                       AUTO
 GLOBAL| Global print level                                               MEDIUM
 GLOBAL| MPI I/O enabled                                                       T
 GLOBAL| Total number of message passing processes                            80
 GLOBAL| Number of threads for this process                                    1
 GLOBAL| This output is from process                                           0
 GLOBAL| CPU model name                 Intel(R) Xeon(R) Gold 6248 CPU @ 2.50GHz
 GLOBAL| CPUID                                                              1003

 MEMORY| system memory details [Kb]
 MEMORY|                        rank 0           min           max       average
 MEMORY| MemTotal            197730152     197730152     197730152     197730152
 MEMORY| MemFree             173882956     173718268     173882956     173800612
 MEMORY| Buffers                     0             0             0             0
 MEMORY| Cached               11139092      11139092      11873092      11506092
 MEMORY| Slab                  2088088       1499584       2088088       1793836
 MEMORY| SReclaimable           301296        301296        553592        427444
 MEMORY| MemLikelyFree       185323344     185323344     186144952     185734148


 *** Fundamental physical constants (SI units) ***

 *** Literature: B. J. Mohr and B. N. Taylor,
 ***             CODATA recommended values of the fundamental physical
 ***             constants: 2006, Web Version 5.1
 ***             http://physics.nist.gov/constants

 Speed of light in vacuum [m/s]                             2.99792458000000E+08
 Magnetic constant or permeability of vacuum [N/A**2]       1.25663706143592E-06
 Electric constant or permittivity of vacuum [F/m]          8.85418781762039E-12
 Planck constant (h) [J*s]                                  6.62606896000000E-34
 Planck constant (h-bar) [J*s]                              1.05457162825177E-34
 Elementary charge [C]                                      1.60217648700000E-19
 Electron mass [kg]                                         9.10938215000000E-31
 Electron g factor [ ]                                     -2.00231930436220E+00
 Proton mass [kg]                                           1.67262163700000E-27
 Fine-structure constant                                    7.29735253760000E-03
 Rydberg constant [1/m]                                     1.09737315685270E+07
 Avogadro constant [1/mol]                                  6.02214179000000E+23
 Boltzmann constant [J/K]                                   1.38065040000000E-23
 Atomic mass unit [kg]                                      1.66053878200000E-27
 Bohr radius [m]                                            5.29177208590000E-11

 *** Conversion factors ***

 [u] -> [a.u.]                                              1.82288848426455E+03
 [Angstrom] -> [Bohr] = [a.u.]                              1.88972613288564E+00
 [a.u.] = [Bohr] -> [Angstrom]                              5.29177208590000E-01
 [a.u.] -> [s]                                              2.41888432650478E-17
 [a.u.] -> [fs]                                             2.41888432650478E-02
 [a.u.] -> [J]                                              4.35974393937059E-18
 [a.u.] -> [N]                                              8.23872205491840E-08
 [a.u.] -> [K]                                              3.15774647902944E+05
 [a.u.] -> [kJ/mol]                                         2.62549961709828E+03
 [a.u.] -> [kcal/mol]                                       6.27509468713739E+02
 [a.u.] -> [Pa]                                             2.94210107994716E+13
 [a.u.] -> [bar]                                            2.94210107994716E+08
 [a.u.] -> [atm]                                            2.90362800883016E+08
 [a.u.] -> [eV]                                             2.72113838565563E+01
 [a.u.] -> [Hz]                                             6.57968392072181E+15
 [a.u.] -> [1/cm] (wave numbers)                            2.19474631370540E+05
 [a.u./Bohr**2] -> [1/cm]                                   5.14048714338585E+03
 

 CELL_TOP| Volume [angstrom^3]:                                      2644.483133
 CELL_TOP| Vector a [angstrom    10.424     0.000     0.000   |a| =    10.424000
 CELL_TOP| Vector b [angstrom     0.145    18.023     0.000   |b| =    18.024000
 CELL_TOP| Vector c [angstrom    -4.943    -0.447    14.076   |c| =    14.925000
 CELL_TOP| Angle (b,c), alpha [degree]:                                91.870000
 CELL_TOP| Angle (a,c), beta  [degree]:                               109.340000
 CELL_TOP| Angle (a,b), gamma [degree]:                                89.540000
 CELL_TOP| Numerically orthorhombic:                                          NO

 GENERATE|  Preliminary Number of Bonds generated:                             0
 GENERATE|  Achieved consistency in connectivity generation.

 CELL| Volume [angstrom^3]:                                          2644.483133
 CELL| Vector a [angstrom]:      10.424     0.000     0.000   |a| =    10.424000
 CELL| Vector b [angstrom]:       0.145    18.023     0.000   |b| =    18.024000
 CELL| Vector c [angstrom]:      -4.943    -0.447    14.076   |c| =    14.925000
 CELL| Angle (b,c), alpha [degree]:                                    91.870000
 CELL| Angle (a,c), beta  [degree]:                                   109.340000
 CELL| Angle (a,b), gamma [degree]:                                    89.540000
 CELL| Numerically orthorhombic:                                              NO

 CELL_REF| Volume [angstrom^3]:                                      2644.483133
 CELL_REF| Vector a [angstrom    10.424     0.000     0.000   |a| =    10.424000
 CELL_REF| Vector b [angstrom     0.145    18.023     0.000   |b| =    18.024000
 CELL_REF| Vector c [angstrom    -4.943    -0.447    14.076   |c| =    14.925000
 CELL_REF| Angle (b,c), alpha [degree]:                                91.870000
 CELL_REF| Angle (a,c), beta  [degree]:                               109.340000
 CELL_REF| Angle (a,b), gamma [degree]:                                89.540000
 CELL_REF| Numerically orthorhombic:                                          NO

 *******************************************************************************
 *******************************************************************************
 **                                                                           **
 **     #####                         ##              ##                      **
 **    ##   ##            ##          ##              ##                      **
 **   ##     ##                       ##            ######                    **
 **   ##     ##  ##   ##  ##   #####  ##  ##   ####   ##    #####    #####    **
 **   ##     ##  ##   ##  ##  ##      ## ##   ##      ##   ##   ##  ##   ##   **
 **   ##  ## ##  ##   ##  ##  ##      ####     ###    ##   ######   ######    **
 **    ##  ###   ##   ##  ##  ##      ## ##      ##   ##   ##       ##        **
 **     #######   #####   ##   #####  ##  ##  ####    ##    #####   ##        **
 **           ##                                                    ##        **
 **                                                                           **
 **                                                ... make the atoms dance   **
 **                                                                           **
 **            Copyright (C) by CP2K developers group (2000-2021)             **
 **                      J. Chem. Phys. 152, 194103 (2020)                    **
 **                                                                           **
 *******************************************************************************

 DFT| Spin restricted Kohn-Sham (RKS) calculation                            RKS
 DFT| Multiplicity                                                             1
 DFT| Number of spin states                                                    1
 DFT| Charge                                                                   0
 DFT| Self-interaction correction (SIC)                                       NO
 DFT| Cutoffs: density                                              1.000000E-10
 DFT|          gradient                                             1.000000E-10
 DFT|          tau                                                  1.000000E-10
 DFT|          cutoff_smoothing_range                               0.000000E+00
 DFT| XC density smoothing                                                  NN50
 DFT| XC derivatives                                                 NN50_SMOOTH
 FUNCTIONAL| ROUTINE=NEW
 FUNCTIONAL| LIBXC Vers. 5.1.4 (Marques, Oliveira, Burnus, CPC 183, 2272 (2012))
 FUNCTIONAL| SCAN correlation of Sun, Ruzsinszky, and Perdew (correlation):
 FUNCTIONAL| [1] J. Sun, A. Ruzsinszky, and J. P. Perdew, Phys. Rev. Lett. 115, 
 FUNCTIONAL| 036402 (2015), doi: 10.1103/PhysRevLett.115.036402                 
 FUNCTIONAL| {scale=1.000, spin-unpolarized}                                    
 FUNCTIONAL| LIBXC Vers. 5.1.4 (Marques, Oliveira, Burnus, CPC 183, 2272 (2012))
 FUNCTIONAL| SCAN exchange of Sun, Ruzsinszky, and Perdew (exchange):
 FUNCTIONAL| [1] J. Sun, A. Ruzsinszky, and J. P. Perdew, Phys. Rev. Lett. 115, 
 FUNCTIONAL| 036402 (2015), doi: 10.1103/PhysRevLett.115.036402                 
 FUNCTIONAL| Optional external parameters:                                      
 FUNCTIONAL|  * c1 parameter                                                    
 FUNCTIONAL|  * c2 parameter                                                    
 FUNCTIONAL|  * d parameter                                                     
 FUNCTIONAL|  * k1 parameter                                                    
 FUNCTIONAL| {scale=1.000, spin-unpolarized}                                    
 vdW POTENTIAL|                                                   Pair Potential
 vdW POTENTIAL|          DFT-D3 (Version 3.1)
 vdW POTENTIAL|          Potential Form: S. Grimme et al, JCP 132: 154104 (2010)
 vdW POTENTIAL|          BJ Damping: S. Grimme et al, JCC 32: 1456 (2011)
 vdW POTENTIAL|          Cutoff Radius [Bohr]:                             28.35
 vdW POTENTIAL|          s6 Scaling Factor:                               1.0000
 vdW POTENTIAL|          a1 Damping Factor:                               0.5380
 vdW POTENTIAL|          s8 Scaling Factor:                               0.0000
 vdW POTENTIAL|          a2 Damping Factor:                               5.4200
 vdW POTENTIAL|          Cutoff for CN calculation:                   0.1000E-05

 QS| Method:                                                                 GPW
 QS| Density plane wave grid type                        NON-SPHERICAL FULLSPACE
 QS| Number of grid levels:                                                    4
 QS| Density cutoff [a.u.]:                                                200.0
 QS| Multi grid cutoff [a.u.]: 1) grid level                               200.0
 QS|                           2) grid level                                66.7
 QS|                           3) grid level                                22.2
 QS|                           4) grid level                                 7.4
 QS| Grid level progression factor:                                          3.0
 QS| Relative density cutoff [a.u.]:                                        20.0
 QS| Interaction thresholds: eps_pgf_orb:                                1.0E-14
 QS|                         eps_filter_matrix:                          0.0E+00
 QS|                         eps_core_charge:                            1.0E-14
 QS|                         eps_rho_gspace:                             1.0E-12
 QS|                         eps_rho_rspace:                             1.0E-12
 QS|                         eps_gvg_rspace:                             1.0E-06
 QS|                         eps_ppl:                                    1.0E-02
 QS|                         eps_ppnl:                                   1.0E-08


 ATOMIC KIND INFORMATION

  1. Atomic kind: Al                                    Number of atoms:      32

     Orbital Basis Set                                   DZVP-MOLOPT-SCAN-GTH-q3

       Number of orbital shell sets:                                           1
       Number of orbital shells:                                               5
       Number of primitive Cartesian functions:                                4
       Number of Cartesian basis functions:                                   14
       Number of spherical basis functions:                                   13
       Norm type:                                                              2

       Normalised Cartesian orbitals:

                        Set   Shell   Orbital            Exponent    Coefficient

                          1       1    2s                0.957917       0.067931
                                                         0.339610       0.029082
                                                         0.152174      -0.126353
                                                         0.053370      -0.034414

                          1       2    3s                0.957917      -0.971845
                                                         0.339610       0.445850
                                                         0.152174       0.126740
                                                         0.053370      -0.098405

                          1       3    3px               0.957917       0.119074
                                                         0.339610      -0.193193
                                                         0.152174      -0.071308
                                                         0.053370      -0.002788
                          1       3    3py               0.957917       0.119074
                                                         0.339610      -0.193193
                                                         0.152174      -0.071308
                                                         0.053370      -0.002788
                          1       3    3pz               0.957917       0.119074
                                                         0.339610      -0.193193
                                                         0.152174      -0.071308
                                                         0.053370      -0.002788

                          1       4    4px               0.957917      -0.097740
                                                         0.339610       0.199566
                                                         0.152174      -0.057295
                                                         0.053370      -0.031696
                          1       4    4py               0.957917      -0.097740
                                                         0.339610       0.199566
                                                         0.152174      -0.057295
                                                         0.053370      -0.031696
                          1       4    4pz               0.957917      -0.097740
                                                         0.339610       0.199566
                                                         0.152174      -0.057295
                                                         0.053370      -0.031696

                          1       5    4dx2              0.957917       0.299321
                                                         0.339610       0.125328
                                                         0.152174       0.022679
                                                         0.053370       0.001303
                          1       5    4dxy              0.957917       0.518439
                                                         0.339610       0.217075
                                                         0.152174       0.039282
                                                         0.053370       0.002257
                          1       5    4dxz              0.957917       0.518439
                                                         0.339610       0.217075
                                                         0.152174       0.039282
                                                         0.053370       0.002257
                          1       5    4dy2              0.957917       0.299321
                                                         0.339610       0.125328
                                                         0.152174       0.022679
                                                         0.053370       0.001303
                          1       5    4dyz              0.957917       0.518439
                                                         0.339610       0.217075
                                                         0.152174       0.039282
                                                         0.053370       0.002257
                          1       5    4dz2              0.957917       0.299321
                                                         0.339610       0.125328
                                                         0.152174       0.022679
                                                         0.053370       0.001303

       Atomic covalent radius [Angstrom]:                                  1.180

       Atomic van der Waals radius [Angstrom]:                             1.840

     GTH Potential information for                                   GTH-SCAN-q3

       Description:                       Goedecker-Teter-Hutter pseudopotential
                                           Goedecker et al., PRB 54, 1703 (1996)
                                          Hartwigsen et al., PRB 58, 3641 (1998)
                                                      Krack, TCA 114, 145 (2005)

       Gaussian exponent of the core charge distribution:               2.468284
       Electronic configuration (s p d ...):                       2   1   0   0

       Parameters of the local part of the GTH pseudopotential:

                          rloc        C1          C2          C3          C4
                        0.450078   -7.508375

       Parameters of the non-local part of the GTH pseudopotential:

                   l      r(l)      h(i,j,l)

                   0    0.486969    6.953807   -1.888834
                                   -1.888834    2.444963
                   1    0.557859    1.850538

  2. Atomic kind: Si                                    Number of atoms:      32

     Orbital Basis Set                                   DZVP-MOLOPT-SCAN-GTH-q4

       Number of orbital shell sets:                                           1
       Number of orbital shells:                                               5
       Number of primitive Cartesian functions:                                4
       Number of Cartesian basis functions:                                   14
       Number of spherical basis functions:                                   13
       Norm type:                                                              2

       Normalised Cartesian orbitals:

                        Set   Shell   Orbital            Exponent    Coefficient

                          1       1    2s                1.216446      -0.038800
                                                         0.423729       0.012286
                                                         0.168790      -0.118260
                                                         0.049081      -0.032419

                          1       2    3s                1.216446      -1.082535
                                                         0.423729       0.416470
                                                         0.168790       0.158843
                                                         0.049081      -0.074133

                          1       3    3px               1.216446       0.165950
                                                         0.423729      -0.266417
                                                         0.168790      -0.084079
                                                         0.049081      -0.001268
                          1       3    3py               1.216446       0.165950
                                                         0.423729      -0.266417
                                                         0.168790      -0.084079
                                                         0.049081      -0.001268
                          1       3    3pz               1.216446       0.165950
                                                         0.423729      -0.266417
                                                         0.168790      -0.084079
                                                         0.049081      -0.001268

                          1       4    4px               1.216446       0.199186
                                                         0.423729      -0.338029
                                                         0.168790       0.102334
                                                         0.049081       0.023456
                          1       4    4py               1.216446       0.199186
                                                         0.423729      -0.338029
                                                         0.168790       0.102334
                                                         0.049081       0.023456
                          1       4    4pz               1.216446       0.199186
                                                         0.423729      -0.338029
                                                         0.168790       0.102334
                                                         0.049081       0.023456

                          1       5    4dx2              1.216446       0.430800
                                                         0.423729       0.205344
                                                         0.168790       0.028687
                                                         0.049081       0.000332
                          1       5    4dxy              1.216446       0.746167
                                                         0.423729       0.355666
                                                         0.168790       0.049687
                                                         0.049081       0.000576
                          1       5    4dxz              1.216446       0.746167
                                                         0.423729       0.355666
                                                         0.168790       0.049687
                                                         0.049081       0.000576
                          1       5    4dy2              1.216446       0.430800
                                                         0.423729       0.205344
                                                         0.168790       0.028687
                                                         0.049081       0.000332
                          1       5    4dyz              1.216446       0.746167
                                                         0.423729       0.355666
                                                         0.168790       0.049687
                                                         0.049081       0.000576
                          1       5    4dz2              1.216446       0.430800
                                                         0.423729       0.205344
                                                         0.168790       0.028687
                                                         0.049081       0.000332

       Atomic covalent radius [Angstrom]:                                  1.110

       Atomic van der Waals radius [Angstrom]:                             2.100

     GTH Potential information for                                   GTH-SCAN-q4

       Description:                       Goedecker-Teter-Hutter pseudopotential
                                           Goedecker et al., PRB 54, 1703 (1996)
                                          Hartwigsen et al., PRB 58, 3641 (1998)
                                                      Krack, TCA 114, 145 (2005)

       Gaussian exponent of the core charge distribution:               2.565716
       Electronic configuration (s p d ...):                       2   2   0   0

       Parameters of the local part of the GTH pseudopotential:

                          rloc        C1          C2          C3          C4
                        0.441449   -6.125207

       Parameters of the non-local part of the GTH pseudopotential:

                   l      r(l)      h(i,j,l)

                   0    0.435533    8.953533   -2.706271
                                   -2.706271    3.510709
                   1    0.495410    2.431366

  3. Atomic kind: O                                     Number of atoms:     144

     Orbital Basis Set                                  TZV2P-MOLOPT-SCAN-GTH-q6

       Number of orbital shell sets:                                           1
       Number of orbital shells:                                               9
       Number of primitive Cartesian functions:                                5
       Number of Cartesian basis functions:                                   34
       Number of spherical basis functions:                                   29
       Norm type:                                                              2

       Normalised Cartesian orbitals:

                        Set   Shell   Orbital            Exponent    Coefficient

                          1       1    2s               10.257817      -0.419073
                                                         3.644287      -0.215759
                                                         1.402225       0.311285
                                                         0.522057       0.263821
                                                         0.168189       0.045116

                          1       2    3s               10.257817       0.362459
                                                         3.644287       0.180656
                                                         1.402225      -0.203664
                                                         0.522057      -0.159611
                                                         0.168189       0.244682

                          1       3    4s               10.257817      -2.413417
                                                         3.644287      -0.850901
                                                         1.402225       0.170654
                                                         0.522057      -0.131214
                                                         0.168189       0.003984

                          1       4    3px              10.257817      -1.672017
                                                         3.644287      -1.345385
                                                         1.402225      -0.751048
                                                         0.522057      -0.276645
                                                         0.168189      -0.033014
                          1       4    3py              10.257817      -1.672017
                                                         3.644287      -1.345385
                                                         1.402225      -0.751048
                                                         0.522057      -0.276645
                                                         0.168189      -0.033014
                          1       4    3pz              10.257817      -1.672017
                                                         3.644287      -1.345385
                                                         1.402225      -0.751048
                                                         0.522057      -0.276645
                                                         0.168189      -0.033014

                          1       5    4px              10.257817       1.559903
                                                         3.644287       0.989060
                                                         1.402225       0.672543
                                                         0.522057       0.141420
                                                         0.168189      -0.167208
                          1       5    4py              10.257817       1.559903
                                                         3.644287       0.989060
                                                         1.402225       0.672543
                                                         0.522057       0.141420
                                                         0.168189      -0.167208
                          1       5    4pz              10.257817       1.559903
                                                         3.644287       0.989060
                                                         1.402225       0.672543
                                                         0.522057       0.141420
                                                         0.168189      -0.167208

                          1       6    5px              10.257817       5.420840
                                                         3.644287       0.742781
                                                         1.402225       2.786765
                                                         0.522057      -0.733751
                                                         0.168189       0.023040
                          1       6    5py              10.257817       5.420840
                                                         3.644287       0.742781
                                                         1.402225       2.786765
                                                         0.522057      -0.733751
                                                         0.168189       0.023040
                          1       6    5pz              10.257817       5.420840
                                                         3.644287       0.742781
                                                         1.402225       2.786765
                                                         0.522057      -0.733751
                                                         0.168189       0.023040

                          1       7    4dx2             10.257817      -1.249026
                                                         3.644287       1.475740
                                                         1.402225       0.993741
                                                         0.522057       0.395456
                                                         0.168189      -0.006736
                          1       7    4dxy             10.257817      -2.163376
                                                         3.644287       2.556057
                                                         1.402225       1.721210
                                                         0.522057       0.684950
                                                         0.168189      -0.011667
                          1       7    4dxz             10.257817      -2.163376
                                                         3.644287       2.556057
                                                         1.402225       1.721210
                                                         0.522057       0.684950
                                                         0.168189      -0.011667
                          1       7    4dy2             10.257817      -1.249026
                                                         3.644287       1.475740
                                                         1.402225       0.993741
                                                         0.522057       0.395456
                                                         0.168189      -0.006736
                          1       7    4dyz             10.257817      -2.163376
                                                         3.644287       2.556057
                                                         1.402225       1.721210
                                                         0.522057       0.684950
                                                         0.168189      -0.011667
                          1       7    4dz2             10.257817      -1.249026
                                                         3.644287       1.475740
                                                         1.402225       0.993741
                                                         0.522057       0.395456
                                                         0.168189      -0.006736

                          1       8    5dx2             10.257817       3.556458
                                                         3.644287      -4.051969
                                                         1.402225      -2.873894
                                                         0.522057       0.263147
                                                         0.168189       0.020709
                          1       8    5dxy             10.257817       6.159966
                                                         3.644287      -7.018216
                                                         1.402225      -4.977731
                                                         0.522057       0.455784
                                                         0.168189       0.035869
                          1       8    5dxz             10.257817       6.159966
                                                         3.644287      -7.018216
                                                         1.402225      -4.977731
                                                         0.522057       0.455784
                                                         0.168189       0.035869
                          1       8    5dy2             10.257817       3.556458
                                                         3.644287      -4.051969
                                                         1.402225      -2.873894
                                                         0.522057       0.263147
                                                         0.168189       0.020709
                          1       8    5dyz             10.257817       6.159966
                                                         3.644287      -7.018216
                                                         1.402225      -4.977731
                                                         0.522057       0.455784
                                                         0.168189       0.035869
                          1       8    5dz2             10.257817       3.556458
                                                         3.644287      -4.051969
                                                         1.402225      -2.873894
                                                         0.522057       0.263147
                                                         0.168189       0.020709

                          1       9    5fx3             10.257817       0.328905
                                                         3.644287      -0.098771
                                                         1.402225       0.001548
                                                         0.522057       0.341041
                                                         0.168189       0.000015
                          1       9    5fx2y            10.257817       0.735453
                                                         3.644287      -0.220859
                                                         1.402225       0.003461
                                                         0.522057       0.762591
                                                         0.168189       0.000033
                          1       9    5fx2z            10.257817       0.735453
                                                         3.644287      -0.220859
                                                         1.402225       0.003461
                                                         0.522057       0.762591
                                                         0.168189       0.000033
                          1       9    5fxy2            10.257817       0.735453
                                                         3.644287      -0.220859
                                                         1.402225       0.003461
                                                         0.522057       0.762591
                                                         0.168189       0.000033
                          1       9    5fxyz            10.257817       1.273842
                                                         3.644287      -0.382540
                                                         1.402225       0.005995
                                                         0.522057       1.320846
                                                         0.168189       0.000058
                          1       9    5fxz2            10.257817       0.735453
                                                         3.644287      -0.220859
                                                         1.402225       0.003461
                                                         0.522057       0.762591
                                                         0.168189       0.000033
                          1       9    5fy3             10.257817       0.328905
                                                         3.644287      -0.098771
                                                         1.402225       0.001548
                                                         0.522057       0.341041
                                                         0.168189       0.000015
                          1       9    5fy2z            10.257817       0.735453
                                                         3.644287      -0.220859
                                                         1.402225       0.003461
                                                         0.522057       0.762591
                                                         0.168189       0.000033
                          1       9    5fyz2            10.257817       0.735453
                                                         3.644287      -0.220859
                                                         1.402225       0.003461
                                                         0.522057       0.762591
                                                         0.168189       0.000033
                          1       9    5fz3             10.257817       0.328905
                                                         3.644287      -0.098771
                                                         1.402225       0.001548
                                                         0.522057       0.341041
                                                         0.168189       0.000015

       Atomic covalent radius [Angstrom]:                                  0.730

       Atomic van der Waals radius [Angstrom]:                             1.520

     GTH Potential information for                                   GTH-SCAN-q6

       Description:                       Goedecker-Teter-Hutter pseudopotential
                                           Goedecker et al., PRB 54, 1703 (1996)
                                          Hartwigsen et al., PRB 58, 3641 (1998)
                                                      Krack, TCA 114, 145 (2005)

       Gaussian exponent of the core charge distribution:               8.656553
       Electronic configuration (s p d ...):                       2   4   0   0

       Parameters of the local part of the GTH pseudopotential:

                          rloc        C1          C2          C3          C4
                        0.240333  -16.794986    2.452457

       Parameters of the non-local part of the GTH pseudopotential:

                   l      r(l)      h(i,j,l)

                   0    0.221500   18.441562

  4. Atomic kind: H                                     Number of atoms:      64

     Orbital Basis Set                                  TZV2P-MOLOPT-SCAN-GTH-q1

       Number of orbital shell sets:                                           1
       Number of orbital shells:                                               6
       Number of primitive Cartesian functions:                                5
       Number of Cartesian basis functions:                                   15
       Number of spherical basis functions:                                   14
       Norm type:                                                              2

       Normalised Cartesian orbitals:

                        Set   Shell   Orbital            Exponent    Coefficient

                          1       1    2s                9.168765       0.095357
                                                         2.161194       0.125778
                                                         0.619868       0.162183
                                                         0.161316       0.074849
                                                         0.412255       0.090962

                          1       2    3s                9.168765      -0.435739
                                                         2.161194      -0.868971
                                                         0.619868      -0.406683
                                                         0.161316      -0.142964
                                                         0.412255       0.978336

                          1       3    4s                9.168765       0.385896
                                                         2.161194       1.113624
                                                         0.619868       0.043366
                                                         0.161316      -0.067676
                                                         0.412255       0.053421

                          1       4    3px               9.168765      -1.788640
                                                         2.161194       0.906920
                                                         0.619868       0.273605
                                                         0.161316       0.091389
                                                         0.412255       0.008094
                          1       4    3py               9.168765      -1.788640
                                                         2.161194       0.906920
                                                         0.619868       0.273605
                                                         0.161316       0.091389
                                                         0.412255       0.008094
                          1       4    3pz               9.168765      -1.788640
                                                         2.161194       0.906920
                                                         0.619868       0.273605
                                                         0.161316       0.091389
                                                         0.412255       0.008094

                          1       5    4px               9.168765       3.833256
                                                         2.161194      -1.958439
                                                         0.619868      -0.594902
                                                         0.161316       0.094348
                                                         0.412255      -0.017587
                          1       5    4py               9.168765       3.833256
                                                         2.161194      -1.958439
                                                         0.619868      -0.594902
                                                         0.161316       0.094348
                                                         0.412255      -0.017587
                          1       5    4pz               9.168765       3.833256
                                                         2.161194      -1.958439
                                                         0.619868      -0.594902
                                                         0.161316       0.094348
                                                         0.412255      -0.017587

                          1       6    4dx2              9.168765       0.046944
                                                         2.161194       0.005757
                                                         0.619868      -0.000296
                                                         0.161316       0.067696
                                                         0.412255      -0.000784
                          1       6    4dxy              9.168765       0.081310
                                                         2.161194       0.009971
                                                         0.619868      -0.000513
                                                         0.161316       0.117253
                                                         0.412255      -0.001358
                          1       6    4dxz              9.168765       0.081310
                                                         2.161194       0.009971
                                                         0.619868      -0.000513
                                                         0.161316       0.117253
                                                         0.412255      -0.001358
                          1       6    4dy2              9.168765       0.046944
                                                         2.161194       0.005757
                                                         0.619868      -0.000296
                                                         0.161316       0.067696
                                                         0.412255      -0.000784
                          1       6    4dyz              9.168765       0.081310
                                                         2.161194       0.009971
                                                         0.619868      -0.000513
                                                         0.161316       0.117253
                                                         0.412255      -0.001358
                          1       6    4dz2              9.168765       0.046944
                                                         2.161194       0.005757
                                                         0.619868      -0.000296
                                                         0.161316       0.067696
                                                         0.412255      -0.000784

       Atomic covalent radius [Angstrom]:                                  0.320

       Atomic van der Waals radius [Angstrom]:                             1.090

     GTH Potential information for                                   GTH-SCAN-q1

       Description:                       Goedecker-Teter-Hutter pseudopotential
                                           Goedecker et al., PRB 54, 1703 (1996)
                                          Hartwigsen et al., PRB 58, 3641 (1998)
                                                      Krack, TCA 114, 145 (2005)

       Gaussian exponent of the core charge distribution:              12.429142
       Electronic configuration (s p d ...):                       1   0   0   0

       Parameters of the local part of the GTH pseudopotential:

                          rloc        C1          C2          C3          C4
                        0.200569   -4.177243    0.723816


 MOLECULE KIND INFORMATION


 All atoms are their own molecule, skipping detailed information


 TOTAL NUMBERS AND MAXIMUM NUMBERS

  Total number of            - Atomic kinds:                                   4
                             - Atoms:                                        272
                             - Shell sets:                                   272
                             - Shells:                                      2000
                             - Primitive Cartesian functions:               1296
                             - Cartesian basis functions:                   6752
                             - Spherical basis functions:                   5904

  Maximum angular momentum of- Orbital basis functions:                        3
                             - Local part of the GTH pseudopotential:          2
                             - Non-local part of the GTH pseudopotential:      2


 MODULE QUICKSTEP:  ATOMIC COORDINATES IN angstrom

  Atom  Kind  Element       X           Y           Z          Z(eff)       Mass

       1     1 Al  13    0.735000    4.234000    3.234000      3.0000      26.9815
       2     1 Al  13    3.424000    8.717000    3.287000      3.0000      26.9815
       3     1 Al  13    3.371000    2.745000    3.331000      3.0000      26.9815
       4     1 Al  13    0.838000    7.212000    3.218000      3.0000      26.9815
       5     2 Si  14    5.096000    2.815000    0.647000      4.0000      28.0855
       6     2 Si  14    2.577000    7.300000    0.620000      4.0000      28.0855
       7     2 Si  14    2.533000    1.319000    0.631000      4.0000      28.0855
       8     2 Si  14   -0.059000    5.924000    0.627000      4.0000      28.0855
       9     3 O    8   -0.331000    3.062000    2.197000      6.0000      15.9994
      10     3 O    8    2.426000    7.469000    2.246000      6.0000      15.9994
      11     3 O    8    0.240000    5.752000    2.195000      6.0000      15.9994
      12     3 O    8    2.791000    1.323000    2.226000      6.0000      15.9994
      13     3 O    8   -0.123000    4.422000   -0.087000      6.0000      15.9994
      14     3 O    8    2.612000   -0.193000   -0.056000      6.0000      15.9994
      15     3 O    8    1.216000    2.147000    0.206000      6.0000      15.9994
      16     3 O    8    3.880000    6.400000    0.140000      6.0000      15.9994
      17     3 O    8    1.231000    6.733000   -0.082000      6.0000      15.9994
      18     3 O    8    3.841000    2.145000   -0.123000      6.0000      15.9994
      19     3 O    8   -0.232000    8.501000    2.349000      6.0000      15.9994
      20     3 O    8    2.400000    4.037000    2.366000      6.0000      15.9994
      21     3 O    8    3.929000    1.254000    4.254000      6.0000      15.9994
      22     3 O    8    1.327000    5.737000    4.242000      6.0000      15.9994
      23     3 O    8   -0.841000    3.916000    4.246000      6.0000      15.9994
      24     3 O    8    1.804000    8.470000    4.242000      6.0000      15.9994
      25     3 O    8   -0.732000    7.563000    4.261000      6.0000      15.9994
      26     3 O    8    1.712000    2.903000    4.150000      6.0000      15.9994
      27     4 H    1   -0.105000    0.010000    1.556000      1.0000       1.0079
      28     4 H    1    2.813000    4.569000    1.691000      1.0000       1.0079
      29     4 H    1   -1.057000    1.037000    5.278000      1.0000       1.0079
      30     4 H    1    1.975000    5.642000    4.912000      1.0000       1.0079
      31     4 H    1   -0.933000    4.037000    5.200000      1.0000       1.0079
      32     4 H    1    1.603000   -0.261000    5.141000      1.0000       1.0079
      33     4 H    1    1.335000    2.217000    4.720000      1.0000       1.0079
      34     4 H    1   -0.791000    7.186000    5.132000      1.0000       1.0079
      35     1 Al  13   -2.193000    4.321000   10.337000      3.0000      26.9815
      36     1 Al  13    0.372000    8.854000   10.222000      3.0000      26.9815
      37     1 Al  13    0.420000    2.817000   10.323000      3.0000      26.9815
      38     1 Al  13   -2.168000    7.335000   10.330000      3.0000      26.9815
      39     2 Si  14    2.198000    2.913000    7.665000      4.0000      28.0855
      40     2 Si  14   -0.487000    7.366000    7.692000      4.0000      28.0855
      41     2 Si  14   -0.280000    1.363000    7.709000      4.0000      28.0855
      42     2 Si  14   -3.049000    5.868000    7.688000      4.0000      28.0855
      43     3 O    8   -3.192000    3.042000    9.364000      6.0000      15.9994
      44     3 O    8   -0.656000    7.573000    9.281000      6.0000      15.9994
      45     3 O    8   -2.722000    5.833000    9.317000      6.0000      15.9994
      46     3 O    8   -0.040000    1.303000    9.331000      6.0000      15.9994
      47     3 O    8   -2.912000    4.378000    7.057000      6.0000      15.9994
      48     3 O    8   -0.225000   -0.105000    7.037000      6.0000      15.9994
      49     3 O    8   -1.675000    2.096000    7.329000      6.0000      15.9994
      50     3 O    8    0.674000    6.345000    7.265000      6.0000      15.9994
      51     3 O    8   -1.948000    6.867000    7.080000      6.0000      15.9994
      52     3 O    8    0.911000    2.201000    6.961000      6.0000      15.9994
      53     3 O    8   -3.268000    8.458000    9.322000      6.0000      15.9994
      54     3 O    8   -0.575000    4.092000    9.358000      6.0000      15.9994
      55     3 O    8    0.996000    1.314000   11.340000      6.0000      15.9994
      56     3 O    8   -1.803000    5.815000   11.393000      6.0000      15.9994
      57     3 O    8   -3.761000    3.994000   11.366000      6.0000      15.9994
      58     3 O    8   -1.212000    8.679000   11.293000      6.0000      15.9994
      59     3 O    8   -3.827000    7.599000   11.288000      6.0000      15.9994
      60     3 O    8   -1.163000    3.103000   11.332000      6.0000      15.9994
      61     4 H    1   -2.980000    0.100000    8.748000      1.0000       1.0079
      62     4 H    1   -0.300000    4.453000    8.516000      1.0000       1.0079
      63     4 H    1   -3.615000    1.289000   12.008000      1.0000       1.0079
      64     4 H    1   -1.598000    5.825000   12.313000      1.0000       1.0079
      65     4 H    1   -4.022000    4.404000   12.155000      1.0000       1.0079
      66     4 H    1   -1.346000   -0.138000   12.298000      1.0000       1.0079
      67     4 H    1   -1.462000    2.598000   12.117000      1.0000       1.0079
      68     4 H    1   -4.249000    7.075000   11.944000      1.0000       1.0079
      69     1 Al  13    0.718000   13.245000    3.369000      3.0000      26.9815
      70     1 Al  13    3.466000   17.808000    3.270000      3.0000      26.9815
      71     1 Al  13    3.346000   11.737000    3.285000      3.0000      26.9815
      72     1 Al  13    0.843000   16.210000    3.322000      3.0000      26.9815
      73     2 Si  14    5.057000   11.953000    0.688000      4.0000      28.0855
      74     2 Si  14    2.554000   16.372000    0.640000      4.0000      28.0855
      75     2 Si  14    2.594000   10.251000    0.702000      4.0000      28.0855
      76     2 Si  14    0.081000   14.800000    0.705000      4.0000      28.0855
      77     3 O    8   -0.265000   12.041000    2.252000      6.0000      15.9994
      78     3 O    8    2.392000   16.612000    2.236000      6.0000      15.9994
      79     3 O    8    0.310000   14.725000    2.283000      6.0000      15.9994
      80     3 O    8    2.800000   10.215000    2.298000      6.0000      15.9994
      81     3 O    8    0.190000   13.297000    0.073000      6.0000      15.9994
      82     3 O    8    2.835000    8.812000    0.008000      6.0000      15.9994
      83     3 O    8    1.106000   10.783000    0.280000      6.0000      15.9994
      84     3 O    8    3.822000   15.431000    0.218000      6.0000      15.9994
      85     3 O    8    1.263000   15.710000   -0.005000      6.0000      15.9994
      86     3 O    8    3.655000   11.367000    0.056000      6.0000      15.9994
      87     3 O    8   -0.209000   17.381000    2.259000      6.0000      15.9994
      88     3 O    8    2.305000   13.030000    2.429000      6.0000      15.9994
      89     3 O    8    3.987000   10.248000    4.238000      6.0000      15.9994
      90     3 O    8    1.315000   14.733000    4.392000      6.0000      15.9994
      91     3 O    8   -0.819000   12.921000    4.341000      6.0000      15.9994
      92     3 O    8    1.922000   17.448000    4.300000      6.0000      15.9994
      93     3 O    8   -0.741000   16.424000    4.304000      6.0000      15.9994
      94     3 O    8    1.723000   11.945000    4.286000      6.0000      15.9994
      95     4 H    1   -0.077000    8.965000    1.543000      1.0000       1.0079
      96     4 H    1    2.656000   13.654000    1.795000      1.0000       1.0079
      97     4 H    1   -0.874000   10.292000    5.150000      1.0000       1.0079
      98     4 H    1    1.658000   14.718000    5.262000      1.0000       1.0079
      99     4 H    1   -1.305000   13.516000    4.890000      1.0000       1.0079
     100     4 H    1    1.804000    8.707000    5.138000      1.0000       1.0079
     101     4 H    1    1.407000   11.537000    5.084000      1.0000       1.0079
     102     4 H    1   -0.917000   15.933000    5.089000      1.0000       1.0079
     103     1 Al  13   -2.166000   13.318000   10.344000      3.0000      26.9815
     104     1 Al  13    0.548000   17.799000   10.393000      3.0000      26.9815
     105     1 Al  13    0.417000   11.819000   10.292000      3.0000      26.9815
     106     1 Al  13   -2.022000   16.308000   10.435000      3.0000      26.9815
     107     2 Si  14    2.205000   11.958000    7.649000      4.0000      28.0855
     108     2 Si  14   -0.410000   16.443000    7.709000      4.0000      28.0855
     109     2 Si  14   -0.314000   10.396000    7.592000      4.0000      28.0855
     110     2 Si  14   -2.968000   14.850000    7.748000      4.0000      28.0855
     111     3 O    8   -3.180000   12.092000    9.272000      6.0000      15.9994
     112     3 O    8   -0.586000   16.709000    9.284000      6.0000      15.9994
     113     3 O    8   -2.677000   14.849000    9.355000      6.0000      15.9994
     114     3 O    8   -0.100000   10.390000    9.178000      6.0000      15.9994
     115     3 O    8   -2.812000   13.379000    7.055000      6.0000      15.9994
     116     3 O    8   -0.171000    8.857000    7.068000      6.0000      15.9994
     117     3 O    8   -1.805000   10.950000    7.181000      6.0000      15.9994
     118     3 O    8    0.822000   15.499000    7.317000      6.0000      15.9994
     119     3 O    8   -1.820000   15.910000    7.053000      6.0000      15.9994
     120     3 O    8    0.857000   11.344000    6.907000      6.0000      15.9994
     121     3 O    8   -3.092000   17.566000    9.448000      6.0000      15.9994
     122     3 O    8   -0.544000   13.129000    9.363000      6.0000      15.9994
     123     3 O    8    0.981000   10.302000   11.278000      6.0000      15.9994
     124     3 O    8   -1.488000   14.732000   11.376000      6.0000      15.9994
     125     3 O    8   -3.738000   13.001000   11.326000      6.0000      15.9994
     126     3 O    8   -0.984000   17.510000   11.434000      6.0000      15.9994
     127     3 O    8   -3.675000   16.584000   11.357000      6.0000      15.9994
     128     3 O    8   -1.140000   12.045000   11.301000      6.0000      15.9994
     129     4 H    1   -2.946000    9.052000    8.659000      1.0000       1.0079
     130     4 H    1   -0.302000   13.699000    8.667000      1.0000       1.0079
     131     4 H    1   -4.017000   10.275000   12.219000      1.0000       1.0079
     132     4 H    1   -0.939000   14.633000   12.156000      1.0000       1.0079
     133     4 H    1   -4.097000   13.414000   12.124000      1.0000       1.0079
     134     4 H    1   -1.665000    9.457000   11.694000      1.0000       1.0079
     135     4 H    1   -1.516000   11.527000   11.947000      1.0000       1.0079
     136     4 H    1   -3.948000   16.060000   12.125000      1.0000       1.0079
     137     1 Al  13    5.994000    4.212000    3.285000      3.0000      26.9815
     138     1 Al  13    8.594000    8.778000    3.359000      3.0000      26.9815
     139     1 Al  13    8.594000    2.635000    3.303000      3.0000      26.9815
     140     1 Al  13    6.026000    7.229000    3.301000      3.0000      26.9815
     141     2 Si  14   10.282000    2.940000    0.582000      4.0000      28.0855
     142     2 Si  14    7.714000    7.499000    0.658000      4.0000      28.0855
     143     2 Si  14    7.814000    1.317000    0.648000      4.0000      28.0855
     144     2 Si  14    5.309000    5.762000    0.632000      4.0000      28.0855
     145     3 O    8    4.873000    3.046000    2.249000      6.0000      15.9994
     146     3 O    8    7.541000    7.647000    2.248000      6.0000      15.9994
     147     3 O    8    5.528000    5.713000    2.249000      6.0000      15.9994
     148     3 O    8    8.054000    1.150000    2.232000      6.0000      15.9994
     149     3 O    8    5.481000    4.267000    0.005000      6.0000      15.9994
     150     3 O    8    7.841000   -0.162000   -0.075000      6.0000      15.9994
     151     3 O    8    6.369000    1.866000    0.326000      6.0000      15.9994
     152     3 O    8    9.065000    6.741000    0.154000      6.0000      15.9994
     153     3 O    8    6.505000    6.675000   -0.048000      6.0000      15.9994
     154     3 O    8    9.014000    2.146000   -0.127000      6.0000      15.9994
     155     3 O    8    4.962000    8.436000    2.273000      6.0000      15.9994
     156     3 O    8    7.592000    3.862000    2.325000      6.0000      15.9994
     157     3 O    8    9.001000    1.151000    4.395000      6.0000      15.9994
     158     3 O    8    6.636000    5.722000    4.270000      6.0000      15.9994
     159     3 O    8    4.434000    4.015000    4.290000      6.0000      15.9994
     160     3 O    8    7.017000    8.468000    4.315000      6.0000      15.9994
     161     3 O    8    4.432000    7.482000    4.311000      6.0000      15.9994
     162     3 O    8    6.977000    2.921000    4.258000      6.0000      15.9994
     163     4 H    1    5.324000    0.080000    1.652000      1.0000       1.0079
     164     4 H    1    7.968000    4.356000    1.657000      1.0000       1.0079
     165     4 H    1    4.413000    1.268000    5.077000      1.0000       1.0079
     166     4 H    1    6.946000    5.763000    5.184000      1.0000       1.0079
     167     4 H    1    4.165000    4.522000    5.044000      1.0000       1.0079
     168     4 H    1    6.736000   -0.320000    5.202000      1.0000       1.0079
     169     4 H    1    6.481000    2.393000    4.897000      1.0000       1.0079
     170     4 H    1    4.321000    7.217000    5.209000      1.0000       1.0079
     171     1 Al  13    3.021000    4.338000   10.338000      3.0000      26.9815
     172     1 Al  13    5.558000    8.804000   10.295000      3.0000      26.9815
     173     1 Al  13    5.626000    2.797000   10.343000      3.0000      26.9815
     174     1 Al  13    2.940000    7.318000   10.206000      3.0000      26.9815
     175     2 Si  14    7.407000    2.907000    7.707000      4.0000      28.0855
     176     2 Si  14    4.693000    7.429000    7.591000      4.0000      28.0855
     177     2 Si  14    4.889000    1.317000    7.742000      4.0000      28.0855
     178     2 Si  14    2.183000    5.783000    7.604000      4.0000      28.0855
     179     3 O    8    1.971000    3.172000    9.258000      6.0000      15.9994
     180     3 O    8    4.514000    7.644000    9.233000      6.0000      15.9994
     181     3 O    8    2.450000    5.781000    9.218000      6.0000      15.9994
     182     3 O    8    5.014000    1.280000    9.374000      6.0000      15.9994
     183     3 O    8    2.444000    4.337000    6.931000      6.0000      15.9994
     184     3 O    8    4.970000   -0.176000    7.092000      6.0000      15.9994
     185     3 O    8    3.523000    2.047000    7.331000      6.0000      15.9994
     186     3 O    8    5.924000    6.454000    7.314000      6.0000      15.9994
     187     3 O    8    3.294000    6.794000    6.930000      6.0000      15.9994
     188     3 O    8    6.086000    2.158000    7.056000      6.0000      15.9994
     189     3 O    8    1.928000    8.577000    9.171000      6.0000      15.9994
     190     3 O    8    4.600000    4.036000    9.357000      6.0000      15.9994
     191     3 O    8    6.120000    1.316000   11.360000      6.0000      15.9994
     192     3 O    8    3.464000    5.905000   11.346000      6.0000      15.9994
     193     3 O    8    1.473000    3.990000   11.348000      6.0000      15.9994
     194     3 O    8    3.936000    8.571000   11.187000      6.0000      15.9994
     195     3 O    8    1.348000    7.545000   11.139000      6.0000      15.9994
     196     3 O    8    3.979000    3.002000   11.294000      6.0000      15.9994
     197     4 H    1    2.228000    0.173000    8.676000      1.0000       1.0079
     198     4 H    1    4.967000    4.531000    8.610000      1.0000       1.0079
     199     4 H    1    1.279000    1.306000   12.190000      1.0000       1.0079
     200     4 H    1    4.092000    5.960000   12.010000      1.0000       1.0079
     201     4 H    1    1.231000    4.418000   12.159000      1.0000       1.0079
     202     4 H    1    3.869000   -0.200000   12.316000      1.0000       1.0079
     203     4 H    1    3.658000    2.424000   11.969000      1.0000       1.0079
     204     4 H    1    1.028000    7.194000   11.924000      1.0000       1.0079
     205     1 Al  13    5.934000   13.308000    3.308000      3.0000      26.9815
     206     1 Al  13    8.660000   17.706000    3.328000      3.0000      26.9815
     207     1 Al  13    8.587000   11.802000    3.232000      3.0000      26.9815
     208     1 Al  13    6.063000   16.260000    3.255000      3.0000      26.9815
     209     2 Si  14   10.385000   11.819000    0.633000      4.0000      28.0855
     210     2 Si  14    7.820000   16.420000    0.661000      4.0000      28.0855
     211     2 Si  14    7.747000   10.434000    0.685000      4.0000      28.0855
     212     2 Si  14    5.242000   14.825000    0.617000      4.0000      28.0855
     213     3 O    8    4.923000   12.090000    2.288000      6.0000      15.9994
     214     3 O    8    7.640000   16.504000    2.268000      6.0000      15.9994
     215     3 O    8    5.487000   14.753000    2.242000      6.0000      15.9994
     216     3 O    8    8.097000   10.238000    2.251000      6.0000      15.9994
     217     3 O    8    5.335000   13.369000   -0.102000      6.0000      15.9994
     218     3 O    8    7.836000    9.002000   -0.058000      6.0000      15.9994
     219     3 O    8    6.292000   11.025000    0.244000      6.0000      15.9994
     220     3 O    8    9.104000   15.490000    0.225000      6.0000      15.9994
     221     3 O    8    6.434000   15.793000    0.009000      6.0000      15.9994
     222     3 O    8    8.947000   11.345000   -0.091000      6.0000      15.9994
     223     3 O    8    5.039000   17.541000    2.283000      6.0000      15.9994
     224     3 O    8    7.503000   13.030000    2.305000      6.0000      15.9994
     225     3 O    8    9.120000   10.319000    4.286000      6.0000      15.9994
     226     3 O    8    6.573000   14.786000    4.305000      6.0000      15.9994
     227     3 O    8    4.333000   13.009000    4.286000      6.0000      15.9994
     228     3 O    8    7.072000   17.389000    4.307000      6.0000      15.9994
     229     3 O    8    4.459000   16.466000    4.180000      6.0000      15.9994
     230     3 O    8    6.976000   11.994000    4.217000      6.0000      15.9994
     231     4 H    1    5.310000    8.920000    1.562000      1.0000       1.0079
     232     4 H    1    7.809000   13.451000    1.514000      1.0000       1.0079
     233     4 H    1    4.625000   10.248000    4.944000      1.0000       1.0079
     234     4 H    1    7.229000   14.745000    4.976000      1.0000       1.0079
     235     4 H    1    4.098000   13.457000    5.067000      1.0000       1.0079
     236     4 H    1    6.652000    8.846000    5.065000      1.0000       1.0079
     237     4 H    1    6.796000   11.548000    4.985000      1.0000       1.0079
     238     4 H    1    4.080000   15.874000    4.803000      1.0000       1.0079
     239     1 Al  13    3.072000   13.270000   10.320000      3.0000      26.9815
     240     1 Al  13    5.717000   17.792000   10.411000      3.0000      26.9815
     241     1 Al  13    5.662000   11.803000   10.287000      3.0000      26.9815
     242     1 Al  13    3.161000   16.300000   10.385000      3.0000      26.9815
     243     2 Si  14    7.384000   11.869000    7.663000      4.0000      28.0855
     244     2 Si  14    4.802000   16.381000    7.756000      4.0000      28.0855
     245     2 Si  14    4.822000   10.390000    7.632000      4.0000      28.0855
     246     2 Si  14    2.261000   14.907000    7.765000      4.0000      28.0855
     247     3 O    8    2.008000   12.085000    9.271000      6.0000      15.9994
     248     3 O    8    4.713000   16.550000    9.357000      6.0000      15.9994
     249     3 O    8    2.542000   14.829000    9.325000      6.0000      15.9994
     250     3 O    8    5.133000   10.332000    9.218000      6.0000      15.9994
     251     3 O    8    2.292000   13.482000    6.949000      6.0000      15.9994
     252     3 O    8    4.873000    8.911000    6.932000      6.0000      15.9994
     253     3 O    8    3.443000   11.086000    7.174000      6.0000      15.9994
     254     3 O    8    6.036000   15.412000    7.373000      6.0000      15.9994
     255     3 O    8    3.371000   15.868000    7.081000      6.0000      15.9994
     256     3 O    8    6.046000   11.245000    6.948000      6.0000      15.9994
     257     3 O    8    2.132000   17.551000    9.382000      6.0000      15.9994
     258     3 O    8    4.629000   12.967000    9.278000      6.0000      15.9994
     259     3 O    8    6.102000   10.290000   11.303000      6.0000      15.9994
     260     3 O    8    3.672000   14.742000   11.316000      6.0000      15.9994
     261     3 O    8    1.427000   13.122000   11.266000      6.0000      15.9994
     262     3 O    8    4.200000   17.488000   11.422000      6.0000      15.9994
     263     3 O    8    1.562000   16.563000   11.381000      6.0000      15.9994
     264     3 O    8    4.132000   12.092000   11.304000      6.0000      15.9994
     265     4 H    1    2.255000    8.921000    8.338000      1.0000       1.0079
     266     4 H    1    4.851000   13.309000    8.414000      1.0000       1.0079
     267     4 H    1    1.606000   10.316000   12.000000      1.0000       1.0079
     268     4 H    1    4.333000   14.596000   12.000000      1.0000       1.0079
     269     4 H    1    1.191000   13.555000   12.075000      1.0000       1.0079
     270     4 H    1    3.635000    8.947000   12.063000      1.0000       1.0079
     271     4 H    1    3.893000   11.654000   12.128000      1.0000       1.0079
     272     4 H    1    1.439000   16.270000   12.282000      1.0000       1.0079




 SCF PARAMETERS         Density guess:                                   RESTART
                        --------------------------------------------------------
                        max_scf:                                              50
                        max_scf_history:                                       0
                        max_diis:                                              4
                        --------------------------------------------------------
                        eps_scf:                                        5.00E-07
                        eps_scf_history:                                0.00E+00
                        eps_diis:                                       1.00E-01
                        eps_eigval:                                     1.00E-05
                        --------------------------------------------------------
                        level_shift [a.u.]:                                 0.00
                        --------------------------------------------------------
                        Outer loop SCF in use 
                        No variables optimised in outer loop
                        eps_scf                                         5.00E-07
                        max_scf                                               20
                        No outer loop optimization
                        step_size                                       5.00E-01

 PW_GRID| Information for grid number                                          1
 PW_GRID| Grid distributed over                                    80 processors
 PW_GRID| Real space group dimensions                                    80    1
 PW_GRID| the grid is blocked:                                                NO
 PW_GRID| Cutoff [a.u.]                                                    200.0
 PW_GRID| spherical cutoff:                                                   NO
 PW_GRID|   Bounds   1            -62      62                Points:         125
 PW_GRID|   Bounds   2           -112     112                Points:         225
 PW_GRID|   Bounds   3            -90      89                Points:         180
 PW_GRID| Volume element (a.u.^3)  0.3525E-02     Volume (a.u.^3)     17845.8570
 PW_GRID| Grid span                                                    FULLSPACE
 PW_GRID|   Distribution                         Average         Max         Min
 PW_GRID|   G-Vectors                            63281.2       63375       63250
 PW_GRID|   G-Rays                                 506.2         507         506
 PW_GRID|   Real Space Points                    63281.2       81000       40500

 PW_GRID| Information for grid number                                          2
 PW_GRID| Number of the reference grid                                         1
 PW_GRID| Grid distributed over                                    80 processors
 PW_GRID| Real space group dimensions                                    80    1
 PW_GRID| the grid is blocked:                                                NO
 PW_GRID| Cutoff [a.u.]                                                     66.7
 PW_GRID| spherical cutoff:                                                   NO
 PW_GRID|   Bounds   1            -37      37                Points:          75
 PW_GRID|   Bounds   2            -62      62                Points:         125
 PW_GRID|   Bounds   3            -54      53                Points:         108
 PW_GRID| Volume element (a.u.^3)  0.1763E-01     Volume (a.u.^3)     17845.8570
 PW_GRID| Grid span                                                    FULLSPACE
[...]
    268      4      H          -0.00447502     0.00571679    -0.00219703
    269      4      H          -0.00155554     0.00247027     0.00893633
    270      4      H           0.01211583    -0.01471860    -0.02860566
    271      4      H           0.00105730    -0.00099311    -0.00030963
    272      4      H          -0.00367857    -0.00395942     0.00433759
 SUM OF ATOMIC FORCES           0.00955025    -0.05018321     0.01018144     0.05208861

 -------------------------------------------------------------------------------
 -                                                                             -
 -                                DBCSR STATISTICS                             -
 -                                                                             -
 -------------------------------------------------------------------------------
 COUNTER                                    TOTAL       BLAS       SMM       ACC
 flops    13 x    32 x    32             61341696       0.0%    100.0%      0.0%
 flops    14 x    32 x    32             66060288       0.0%    100.0%      0.0%
 flops    29 x    32 x    32            307888128       0.0%    100.0%      0.0%
 flops    13 x    13 x    32          22677258240       0.0%    100.0%      0.0%
 flops    14 x    13 x    32          24045944832       0.0%    100.0%      0.0%
 flops    13 x    14 x    32          24045944832       0.0%    100.0%      0.0%
 flops    14 x    14 x    32          26300252160       0.0%    100.0%      0.0%
 flops   128 x    32 x   297          38188744704       0.0%    100.0%      0.0%
 flops   160 x    32 x   297          47735930880       0.0%    100.0%      0.0%
 flops   128 x    32 x   283          72777203712       0.0%    100.0%      0.0%
 flops   128 x    32 x    32          78819360768       0.0%    100.0%      0.0%
 flops   160 x    32 x   283          90971504640       0.0%    100.0%      0.0%
 flops    13 x    32 x    13          98085371904       0.0%    100.0%      0.0%
 flops   160 x    32 x    32          98524200960       0.0%    100.0%      0.0%
 flops    14 x    32 x    13         105630400512       0.0%    100.0%      0.0%
 flops    13 x    32 x    14         105630400512       0.0%    100.0%      0.0%
 flops    13 x    29 x    32         112071278592       0.0%    100.0%      0.0%
 flops    29 x    13 x    32         112071278592       0.0%    100.0%      0.0%
 flops    14 x    32 x    14         113755815936       0.0%    100.0%      0.0%
 flops  1488 x    32 x   297         114040700928       0.0%    100.0%      0.0%
 flops  1490 x    32 x   297         114193981440       0.0%    100.0%      0.0%
 flops   128 x    32 x   299         115337723904       0.0%    100.0%      0.0%
 flops    14 x    29 x    32         120692146176       0.0%    100.0%      0.0%
 flops    29 x    14 x    32         120692146176       0.0%    100.0%      0.0%
 flops   160 x    32 x   299         144172154880       0.0%    100.0%      0.0%
 flops  1488 x    32 x   283         217330089984       0.0%    100.0%      0.0%
 flops  1490 x    32 x   283         217622200320       0.0%    100.0%      0.0%
 flops  1463 x    32 x   297         224249389056       0.0%    100.0%      0.0%
 flops  1488 x    32 x    32         266588651520       0.0%    100.0%      0.0%
 flops  1490 x    32 x    32         266946969600       0.0%    100.0%      0.0%
 flops  1488 x    32 x   299         344425955328       0.0%    100.0%      0.0%
 flops  1490 x    32 x   299         344888893440       0.0%    100.0%      0.0%
 flops  1463 x    32 x   283         427357421568       0.0%    100.0%      0.0%
 flops    13 x    32 x    29         492313116672       0.0%    100.0%      0.0%
 flops    29 x    32 x    13         492313116672       0.0%    100.0%      0.0%
 flops  1463 x    32 x    32         524219351040       0.0%    100.0%      0.0%
 flops    14 x    32 x    29         530183356416       0.0%    100.0%      0.0%
 flops    29 x    32 x    14         530183356416       0.0%    100.0%      0.0%
 flops    29 x    29 x    32         566417940480       0.0%    100.0%      0.0%
 flops  1463 x    32 x   299         677278457856       0.0%    100.0%      0.0%
 flops    29 x    32 x    29        2471033143296       0.0%    100.0%      0.0%
 flops inhomo. stacks               2385676468224     100.0%      0.0%      0.0%
 flops total                        12.879923E+12      18.5%     81.5%      0.0%
 flops max/rank                    180.795886E+09      18.8%     81.2%      0.0%
 matmuls inhomo. stacks                    190080     100.0%      0.0%      0.0%
 matmuls total                          202661856       0.1%     99.9%      0.0%
 number of processed stacks               3720168       5.1%     94.9%      0.0%
 average stack size                                     1.0      57.4       0.0
 marketing flops                    13.790066E+12
 -------------------------------------------------------------------------------
 # multiplications                           1247
 max memory usage/rank             378.630144E+06
 # max total images/rank                        5
 # max 3D layers                                1
 # MPI messages exchanged                 3391840
 MPI messages size (bytes):
  total size                         1.598153E+12
  min size                           0.000000E+00
  max size                           3.921680E+06
  average size                     471.175875E+03
 MPI breakdown and total messages size (bytes):
             size <=      128              356548                        0
       128 < size <=     8192              713556               5845450752
      8192 < size <=    32768              317376              10399776768
     32768 < size <=   131072              867096              54542721024
    131072 < size <=  4194304             1137264            1527330981888
   4194304 < size <= 16777216                   0                        0
  16777216 < size                               0                        0
 -------------------------------------------------------------------------------

 *** WARNING in dbcsr_mm.F:294 :: Using a non-square number of MPI ranks ***
 *** might lead to poor performance. Used ranks: 80 Suggested: 81 169    ***

 -------------------------------------------------------------------------------
 -                                                                             -
 -                      DBCSR MESSAGE PASSING PERFORMANCE                      -
 -                                                                             -
 -------------------------------------------------------------------------------
 ROUTINE             CALLS      AVE VOLUME [Bytes]
 MP_Bcast               42                     12.
 MP_Allreduce         6804                     42.
 MP_Alltoall          4352                  48621.
 MP_ISend            95712                 221944.
 MP_IRecv            95712                 220195.
 -------------------------------------------------------------------------------

 -------------------------------------------------------------------------------
 -                                                                             -
 -                                GRID STATISTICS                              -
 -                                                                             -
 -------------------------------------------------------------------------------
 LP    KERNEL             BACKEND                              COUNT     PERCENT
 5     collocate general  REF                               24078890      12.81%
 7     collocate general  REF                               24078890      12.81%
 7     integrate general  REF                               24057214      12.80%
 5     integrate general  REF                               23933505      12.73%
 6     integrate general  REF                               22908386      12.19%
 6     collocate general  REF                               22886710      12.18%
 4     collocate general  REF                               16082715       8.56%
 4     integrate general  REF                               15790302       8.40%
 8     integrate general  REF                                7118084       3.79%
 8     collocate general  REF                                6803995       3.62%
 9     integrate general  REF                                 123709       0.07%
 0     collocate general  REF                                  43520       0.02%
 0     integrate general  REF                                  21760       0.01%
 1     integrate general  REF                                  21760       0.01%
 -------------------------------------------------------------------------------

 MEMORY| Estimated peak process memory [MiB]                                 362

 -------------------------------------------------------------------------------
 ----                             MULTIGRID INFO                            ----
 -------------------------------------------------------------------------------
 count for grid        1:        1928602          cutoff [a.u.]          200.00
 count for grid        2:        1492986          cutoff [a.u.]           66.67
 count for grid        3:        1551606          cutoff [a.u.]           22.22
 count for grid        4:         934324          cutoff [a.u.]            7.41
 total gridlevel count  :        5907518

 -------------------------------------------------------------------------------
 -                                                                             -
 -                         MESSAGE PASSING PERFORMANCE                         -
 -                                                                             -
 -------------------------------------------------------------------------------

 ROUTINE             CALLS      AVE VOLUME [Bytes]
 MP_Group                4
 MP_Bcast             3454                 233054.
 MP_Allreduce         9035                    426.
 MP_Sync               114
 MP_Alltoall          1282                4321673.
 MP_SendRecv          1196                 240112.
 MP_ISendRecv        34760                  24480.
 MP_Wait             76822
 MP_comm_split          54
 MP_ISend            39402                  64415.
 MP_IRecv            39402                  64415.
 MP_Recv                57                1369728.
 -------------------------------------------------------------------------------


 -------------------------------------------------------------------------------
 -                                                                             -
 -                           R E F E R E N C E S                               -
 -                                                                             -
 -------------------------------------------------------------------------------
 
 CP2K version 8.2, the CP2K developers group (2021).
 CP2K is freely available from https://www.cp2k.org/ .

 Kuehne,Thomas D.; Iannuzzi,Marcella; Del Ben,Mauro;
 Rybkin,Vladimir V.; Seewald,Patrick; Stein,Frederick; Laino,Teodoro;
 Khaliullin,Rustam Z.; Schuett,Ole; Schiffmann,Florian; Golze,Dorothea;
 Wilhelm,Jan; Chulkov,Sergey; Bani-Hashemian,Mohammad Hossein;
 Weber,Valery; Borstnik,Urban; Taillefumier,Mathieu;
 Jakobovits,Alice Shoshana; Lazzaro,Alfio; Pabst,Hans; Mueller,Tiziano;
 Schade,Robert; Guidon,Manuel; Andermatt,Samuel; Holmberg,Nico;
 Schenter,Gregory K.; Hehn,Anna; Bussy,Augustin; Belleflamme,Fabian;
 Tabacchi,Gloria; Gloess,Andreas; Lass,Michael; Bethune,Iain;
 Mundy,Christopher J.; Plessl,Christian; Watkins,Matt;
 VandeVondele,Joost; Krack,Matthias; Hutter,Juerg. 
 The Journal of Chemical Physics, 152 (19), (2020). 
 CP2K: An electronic structure and molecular dynamics software package -
 Quickstep: Efficient and accurate electronic structure calculations.
 https://doi.org/10.1063/5.0007045

 Lehtola, S; Steigemann, C; Oliveira, MJT; Marques, MAL. 
 SoftwareX, 7, 1-5 (2018). 
 Recent developments in libxc - A comprehensive library of functionals
 for density functional theory.
 https://doi.org/10.1016/j.softx.2017.11.002

 Goerigk, Lars; Hansen, Andreas; Bauer, Christoph; Ehrlich, Stephan;
 Najibi, Asim; Grimme, Stefan. , 19 (48), (2017). 
 A look at the density functional theory zoo with the advanced GMTKN55 database
 for general main group thermochemistry, kinetics and noncovalent interactions.
 https://doi.org/10.1039/C7CP04913G

 Schuett, Ole; Messmer, Peter; Hutter, Juerg; VandeVondele, Joost. 
 Electronic Structure Calculations on Graphics Processing Units, John
 Wiley & Sons, Ltd, 173-190 (2016). 
 GPU-Accelerated Sparse Matrix-Matrix Multiplication for
 Linear Scaling Density Functional Theory.
 https://doi.org/10.1002/9781118670712.ch8

 Heinecke, A; Henry, G; Hutchinson, M; Pabst, H. 
 Proceedings of Intl. Supercomputing Conference, 981-991 (2016). 
 LIBXSMM: Accelerating Small Matrix Multiplications
 by Runtime Code Generation.
 https://doi.org/10.1109/SC.2016.83

 Borstnik, U; VandeVondele, J; Weber, V; Hutter, J. 
 PARALLEL COMPUTING, 40 (5-6), 47-58 (2014). 
 Sparse matrix multiplication: The distributed block-compressed sparse
 row library.
 https://doi.org/10.1016/j.parco.2014.03.012

 Hutter, J; Iannuzzi, M; Schiffmann, F; VandeVondele, J. 
 WIREs Comput Mol Sci., 4 (1), 15-25 (2014). 
 CP2K: atomistic simulations of condensed matter systems.
 https://doi.org/10.1002/wcms.1159

 Marek, A; Blum, V; Johanni, R; Havu, V; Lang, B; Auckenthaler, T;
 Heinecke, A; Bungartz, H; Lederer, H. 
 Journal of Physics: Condensed Matter, 26 (21), (2014). 
 The ELPA library: scalable parallel eigenvalue solutions for
 electronic structure
 theory and computational science.
 https://doi.org/10.1088/0953-8984/26/21/213201

 Marques, MAL; Oliveira, MJT; Burnus, T. 
 COMPUTER PHYSICS COMMUNICATIONS, 183 (10), 2272-2281 (2012). 
 LIBXC: A library of exchange and correlation functionals for density
 functional theory.
 https://doi.org/10.1016/j.cpc.2012.05.007

 Grimme, S; Ehrlich, S; Goerigk, L. 
 JOURNAL OF COMPUTATIONAL CHEMISTRY, 32, 1456 (2011). 
 Effect of the damping function in dispersion corrected density functional theory.
 https://doi.org/10.1002/jcc.21759

 Grimme, S; Antony, J; Ehrlich, S; Krieg, H. 
 JOURNAL OF CHEMICAL PHYSICS, 132 (15), 154104 (2010). 
 A consistent and accurate ab initio parametrization of density
 functional dispersion correction (DFT-D) for the 94 elements H-Pu.
 https://doi.org/10.1063/1.3382344

 VandeVondele, J; Hutter, J. 
 JOURNAL OF CHEMICAL PHYSICS, 127 (11), 114105 (2007). 
 Gaussian basis sets for accurate calculations on molecular systems in
 gas and condensed phases.
 https://doi.org/10.1063/1.2770708

 Krack, M. 
 THEORETICAL CHEMISTRY ACCOUNTS, 114 (1-3), 145-152 (2005). 
 Pseudopotentials for H to Kr optimized for gradient-corrected
 exchange-correlation functionals.
 https://doi.org/10.1007/s00214-005-0655-y

 VandeVondele, J; Krack, M; Mohamed, F; Parrinello, M; Chassaing, T;
 Hutter, J. COMPUTER PHYSICS COMMUNICATIONS, 167 (2), 103-128 (2005). 
 QUICKSTEP: Fast and accurate density functional calculations using a
 mixed Gaussian and plane waves approach.
 https://doi.org/10.1016/j.cpc.2004.12.014

 Frigo, M; Johnson, SG. 
 PROCEEDINGS OF THE IEEE, 93 (2), 216-231 (2005). 
 The design and implementation of FFTW3.
 https://doi.org/10.1109/JPROC.2004.840301

 VandeVondele, J; Hutter, J. 
 JOURNAL OF CHEMICAL PHYSICS, 118 (10), 4365-4369 (2003). 
 An efficient orbital transformation method for electronic structure
 calculations.
 https://doi.org/10.1063/1.1543154

 Hartwigsen, C; Goedecker, S; Hutter, J. 
 PHYSICAL REVIEW B, 58 (7), 3641-3662 (1998). 
 Relativistic separable dual-space Gaussian pseudopotentials from H to Rn.
 https://doi.org/10.1103/PhysRevB.58.3641

 Lippert, G; Hutter, J; Parrinello, M. 
 MOLECULAR PHYSICS, 92 (3), 477-487 (1997). 
 A hybrid Gaussian and plane wave density functional scheme.
 https://doi.org/10.1080/002689797170220

 Goedecker, S; Teter, M; Hutter, J. 
 PHYSICAL REVIEW B, 54 (3), 1703-1710 (1996). 
 Separable dual-space Gaussian pseudopotentials.
 https://doi.org/10.1103/PhysRevB.54.1703


 -------------------------------------------------------------------------------
 -                                                                             -
 -                                T I M I N G                                  -
 -                                                                             -
 -------------------------------------------------------------------------------
 SUBROUTINE                       CALLS  ASD         SELF TIME        TOTAL TIME
                                MAXIMUM       AVERAGE  MAXIMUM  AVERAGE  MAXIMUM
 CP2K                                 1  1.0    0.347    0.389  627.411  627.415
 qs_forces                            1  2.0    0.003    0.005  625.905  625.906
 qs_energies                          1  3.0    0.003    0.004  598.306  598.309
 scf_env_do_scf                       1  4.0    0.000    0.001  588.422  588.424
 scf_env_do_scf_inner_loop           54  5.0    0.003    0.009  568.415  568.439
 rebuild_ks_matrix                   55  6.9    0.001    0.001  335.465  335.612
 qs_ks_build_kohn_sham_matrix        55  7.9    0.009    0.018  335.464  335.611
 sum_up_and_integrate                55  8.9    0.023    0.030  322.885  322.902
 integrate_v_rspace                 110  9.9    0.005    0.005  322.861  322.884
 qs_ks_update_qs_env                 56  6.0    0.000    0.000  318.414  318.560
 grid_integrate_task_list           110 10.9  288.882  314.366  288.882  314.366
 qs_rho_update_rho                   55  6.0    0.001    0.001  240.297  240.325
 calculate_rho_elec                 110  7.0    0.045    0.057  240.296  240.324
 grid_collocate_task_list           110  8.0  213.509  232.232  213.509  232.232
 mp_alltoall_d11v                  1086 12.8   29.818   45.391   29.818   45.391
 rs_gather_matrices                 110 10.9    0.324    0.353   28.056   43.637
 rs_pw_transfer                     884 10.5    0.012    0.014   26.861   36.881
 density_rs2pw                      110  8.0    0.004    0.005   24.338   34.362
 mp_waitany                       39402 12.4   21.345   31.397   21.345   31.397
 rs_pw_transfer_RS2PW_200           112 10.0    0.586    0.640   20.846   30.878
 dbcsr_multiply_generic            1247 11.2    0.061    0.072   29.168   29.255
 qs_scf_new_mos                      54  6.0    0.000    0.000   25.779   25.962
 qs_scf_loop_do_ot                   54  7.0    0.000    0.000   25.778   25.961
 ot_scf_mini                         54  8.0    0.001    0.001   24.644   24.829
 multiply_cannon                   1247 12.2    0.107    0.115   23.971   24.670
 multiply_cannon_loop              1247 13.2    0.204    0.227   22.866   23.590
 mp_waitall_1                    177084 14.7   13.216   22.919   13.216   22.919
 multiply_cannon_metrocomm3       24940 14.2    0.080    0.090   10.908   20.865
 init_scf_loop                        2  5.0    0.001    0.008   19.978   19.991
 qs_ks_update_qs_env_forces           1  3.0    0.000    0.000   17.195   17.198
 ot_mini                             54  9.0    0.001    0.001   15.786   15.996
 -------------------------------------------------------------------------------

 The number of warnings for this run is : 2
 
 -------------------------------------------------------------------------------
  **** **** ******  **  PROGRAM ENDED AT                 2022-10-14 15:55:45.255
 ***** ** ***  *** **   PROGRAM RAN ON                             node-c12g-003
 **    ****   ******    PROGRAM RAN BY                                   mmm0779
 ***** **    ** ** **   PROGRAM PROCESS ID                                 57257
  **** **  *******  **  PROGRAM STOPPED IN /lustre/home/mmm0779/work/aiida/6d/bf
                                           /3aa9-6ac8-4d7b-a095-4d5ced88ed96
